ITEM: TIMESTEP
0
ITEM: NUMBER OF ATOMS
4394
ITEM: BOX BOUNDS pp pp pp
-2.7277991310530325e-02 1.4727277991305876e+01
-2.7277991310530325e-02 1.4727277991305876e+01
-2.7277991310530325e-02 1.4727277991305876e+01
ITEM: ATOMS id type xs ys zs
1 1 0.928915 0.674804 0.597789
2 1 0.936109 0.734793 0.452528
3 1 0.667262 0.317411 0.832636
4 1 0.368635 0.270894 0.650849
5 1 0.446273 0.170886 0.370066
6 1 0.652945 0.0177298 0.338787
7 1 0.534018 0.999688 0.989491
8 1 0.705135 0.225179 0.904369
9 1 0.879338 0.0952304 0.202205
10 1 0.96674 0.184775 0.326806
11 1 0.129735 0.28079 0.919591
12 1 0.864905 0.645704 0.638624
13 1 0.672544 0.403053 0.358274
14 1 0.35876 0.95819 0.691288
15 1 0.899625 0.72953 0.774095
16 1 0.453355 0.469719 0.362848
17 1 0.875997 0.460019 0.547616
18 1 0.146852 0.421619 0.535955
19 1 0.431437 0.950846 0.0120832
20 1 0.222889 0.708527 0.897224
21 1 0.00753406 0.123107 0.374635
22 1 0.690566 0.190713 0.799594
23 1 0.113143 0.709088 0.591417
24 1 0.0331212 0.730381 0.794348
25 1 0.856561 0.867992 0.273284
26 1 0.595703 0.261182 0.892128
27 1 0.39392 0.305907 0.930762
28 1 0.592336 0.732594 0.429987
29 1 0.723417 0.153114 0.168162
30 1 0.816104 0.74289 0.540835
31 1 0.444982 0.437649 0.954758
32 1 0.20796 0.96679 0.343489
33 1 0.780839 0.254533 0.848847
34 1 0.227024 0.545769 0.877774
35 1 0.355289 0.978587 0.164357
36 1 0.0208089 0.304004 0.532891
37 1 0.271514 0.439097 0.930738
38 1 0.0264208 0.680736 0.744314
39 1 0.980312 0.782116 0.081245
40 1 0.401626 0.839003 0.720419
41 1 0.705365 0.263031 0.783914
42 1 0.321129 0.327278 0.111719
43 1 0.850145 0.188376 0.877984
44 1 0.90179 0.273475 0.160822
45 1 0.30939 0.872169 0.850316
46 1 0.07927 0.830759 0.23331
47 1 0.812453 0.378503 0.0835517
48 1 0.664343 0.00895986 0.944873
49 1 0.831372 0.714073 0.809378
50 1 0.611383 0.576636 0.696226
51 1 0.512316 0.244277 0.676685
52 1 0.488484 0.512524 0.692515
53 1 0.00586675 0.452384 0.696935
54 1 0.519045 0.0524935 0.434346
55 1 0.546699 0.785687 0.568777
56 1 0.460523 0.746105 0.144313
57 1 0.579781 0.137581 0.113091
58 1 0.274548 0.199057 0.229053
59 1 0.223117 0.201485 0.459595
60 1 0.327833 0.873496 0.430853
61 1 0.423991 0.687969 0.341369
62 1 0.0353195 0.879244 0.151723
63 1 0.606055 0.236599 0.331454
64 1 0.638056 0.571909 0.959895
65 1 0.209952 0.645079 0.998865
66 1 0.201623 0.902855 0.682605
67 1 0.111347 0.592828 0.555184
68 1 0.738746 0.865409 0.761878
69 1 0.122521 0.149445 0.399348
70 1 0.11582 0.379835 0.469797
71 1 0.269697 0.866187 0.7216
72 1 0.184271 0.692001 0.306858
73 1 0.671837 0.424045 0.0697373
74 1 0.473929 0.193457 0.552277
75 1 0.16432 0.698656 0.676537
76 1 0.897648 0.585226 0.114353
77 1 0.363292 0.369315 0.147883
78 1 0.523403 0.822254 0.334262
79 1 0.517535 0.585442 0.281892
80 1 0.628525 0.852814 0.959247
81 1 0.337483 0.336326 0.204608
82 1 0.570953 0.900908 0.397438
83 1 0.0859554 0.0254742 0.802278
84 1 0.355841 0.270624 0.0829181
85 1 0.174946 0.333465 0.641677
86 1 0.985304 0.740822 0.726457
87 1 0.18597 0.24358 0.204517
88 1 0.669069 0.492706 0.571097
89 1 0.848079 0.0799709 0.513206
90 1 0.185349 0.10676 0.628649
91 1 0.64059 0.381422 0.191882
92 1 0.8376 0.539201 0.0370856
93 1 0.279853 0.123738 0.588886
94 1 0.539937 0.153204 0.902722
95 1 0.514188 0.148251 0.137676
96 1 0.15763 0.623608 0.617275
97 1 0.989588 0.31909 0.599023
98 1 0.317986 0.398339 0.231476
99 1 0.117684 0.425709 0.263053
100 1 0.616698 0.961753 0.371018
101 1 0.234804 0.385314 0.495751
102 1 0.440565 0.0863512 0.554737
103 1 0.804832 0.351005 0.888237
104 1 0.289914 0.268323 0.139103
105 1 0.0783294 0.491123 0.432101
106 1 0.68488 0.41869 0.618847
107 1 0.940572 0.940788 0.587241
108 1 0.663362 0.985308 0.0779222
109 1 0.463065 0.0287131 0.326584
110 1 0.255756 0.0694398 0.476888
111 1 0.548188 0.374864 0.93957
112 1 0.760062 0.0440196 0.574617
113 1 0.41792 0.254563 0.3954
114 1 0.122982 0.911214 0.85896
115 1 0.403292 0.319085 0.605757
116 1 0.87869 0.197696 0.447772
117 1 0.191255 0.775886 0.869987
118 1 0.505505 0.0181259 0.607923
119 1 0.532541 0.906657 0.691104
120 1 0.274391 0.84996 0.937828
121 1 0.709734 0.92989 0.463691
122 1 0.514217 0.593318 0.997985
123 1 0.295009 0.0408266 0.37593
124 1 0.057927 0.0487522 0.735281
125 1 0.181749 0.236203 0.774648
126 1 0.0620743 0.296485 0.901181
127 1 0.609578 0.09451 0.0608733
128 1 0.526304 0.327002 0.0188789
129 1 0.260142 0.355109 0.844167
130 1 0.917264 0.65976 0.688558
131 1 0.477735 0.241856 0.357123
132 1 0.041202 0.434841 0.278281
133 1 0.321647 0.711576 0.745509
134 1 0.22889 0.357158 0.211754
135 1 0.785592 0.763805 0.807171
136 1 0.413073 0.0782046 0.850506
137 1 0.214416 0.235222 0.590024
138 1 0.0869876 0.923219 0.689104
139 1 0.23665 0.303013 0.692972
140 1 0.455865 0.448332 0.127711
141 1 0.474314 0.718623 0.599558
142 1 0.832982 0.731974 0.36569
143 1 0.321667 0.601657 0.203407
144 1 0.880803 0.646272 0.0331287
145 1 0.417613 0.0237997 0.0227384
146 1 0.325655 0.885024 0.131287
147 1 0.479916 0.61671 0.775871
148 1 0.434049 0.602368 0.0589956
149 1 0.959546 0.839354 0.659655
150 1 0.141979 0.136982 0.709115
151 1 0.344491 0.724281 0.370372
152 1 0.0852968 0.557366 0.300288
153 1 0.76296 0.0384056 0.667377
154 1 0.0291108 0.626193 0.668629
155 1 0.0108584 0.548959 0.523641
156 1 0.346895 0.415144 0.767743
157 1 0.627468 0.0840327 0.278519
158 1 0.0284633 0.451572 0.121287
159 1 0.18727 0.653247 0.561708
160 1 0.963663 0.483295 0.377315
161 1 0.894224 0.371606 0.18449
162 1 0.147941 0.0848598 0.12571
163 1 0.719047 0.0261434 0.259887
164 1 0.47095 0.988153 0.0634174
165 1 0.58695 0.271142 0.640974
166 1 0.135117 0.717411 0.874742
167 1 0.322918 0.332109 0.898215
168 1 0.842029 0.798655 0.88403
169 1 0.201282 0.329679 0.979217
170 1 0.00839405 0.889631 0.360697
171 1 0.171599 0.581085 0.810313
172 1 0.494298 0.436061 0.479428
173 1 0.917911 0.178824 0.754634
174 1 0.0261962 0.022307 0.261684
175 1 0.957343 0.645231 0.174784
176 1 0.0818284 0.247971 0.502575
177 1 0.872344 0.735729 0.705208
178 1 0.114124 0.216903 0.878789
179 1 0.305026 0.453209 0.545823
180 1 0.194825 0.51838 0.355386
181 1 0.989593 0.296155 0.419592
182 1 0.0929761 0.214865 0.748294
183 1 0.706563 0.258778 0.285981
184 1 0.878719 0.648766 0.487317
185 1 0.68603 0.68948 0.91669
186 1 0.774981 0.806776 0.596995
187 1 0.628134 0.388888 0.663255
188 1 0.173875 0.290429 0.849035
189 1 0.608407 0.381945 0.0773163
190 1 0.199531 0.095017 0.240356
191 1 0.577743 0.7956 0.373953
192 1 0.97314 0.599313 0.748135
193 1 0.187424 0.878075 0.310695
194 1 0.539048 0.963076 0.756481
195 1 0.620723 0.351188 0.923108
196 1 0.363629 0.890232 0.299727
197 1 0.422293 0.22665 0.304387
198 1 0.657091 0.646193 0.690161
199 1 0.169171 0.0388119 0.803232
200 1 0.319995 0.0687988 0.751988
201 1 0.253635 0.391629 0.263957
202 1 0.715633 0.699061 0.665183
203 1 0.446867 0.85607 0.163266
204 1 0.662837 0.285295 0.344434
205 1 0.426541 0.538312 0.272686
206 1 0.801176 0.443436 0.368104
207 1 0.566052 0.912469 0.631845
208 1 0.331831 0.681783 0.938843
209 1 0.190279 0.632359 0.0640207
210 1 0.672213 0.811444 0.116606
211 1 0.882352 0.23142 0.093535
212 1 0.736083 0.179836 0.865293
213 1 0.474716 0.674836 0.181287
214 1 0.443651 0.899998 0.436474
215 1 0.983591 0.283738 0.349853
216 1 0.721894 0.988959 0.987535
217 1 0.562408 0.0776551 0.349377
218 1 0.269196 0.3113 0.454474
219 1 0.204743 0.804177 0.486106
220 1 0.279018 0.342675 0.536314
221 1 0.560208 0.784307 0.873218
222 1 0.313848 0.732771 0.643298
223 1 0.992577 0.436673 0.225102
224 1 0.652999 0.975991 0.833444
225 1 0.803658 0.864465 0.526247
226 1 0.254078 0.388219 0.697663
227 1 0.902806 0.120926 0.28818
228 1 0.414525 0.532531 0.199846
229 1 0.449089 0.354795 0.355527
230 1 0.901006 0.152386 0.348656
231 1 0.970042 0.121093 0.867907
232 1 0.0353622 0.661466 0.233162
233 1 0.80873 0.239188 0.0487701
234 1 0.924203 0.061725 0.252373
235 1 0.543358 0.697712 0.133492
236 1 0.781309 0.848004 0.355367
237 1 0.460199 0.199911 0.999939
238 1 0.587855 0.680722 0.841951
239 1 0.696229 0.654965 0.0306904
240 1 0.141939 0.124246 0.00762802
241 1 0.730814 0.392462 0.575722
242 1 0.900434 0.578596 0.611369
243 1 0.114005 0.918848 0.465222
244 1 0.105524 0.651682 0.153564
245 1 0.4169 0.352782 0.235984
246 1 0.636878 0.580365 0.166573
247 1 0.340579 0.484739 0.900011
248 1 0.769086 0.271241 0.927127
249 1 0.473131 0.284632 0.765284
250 1 0.592722 0.954233 0.693106
251 1 0.211075 0.960471 0.0406457
252 1 0.701419 0.504333 0.628644
253 1 0.979951 0.322119 0.148094
254 1 0.310101 0.859059 0.34243
255 1 0.686911 0.0033011 0.164658
256 1 0.933505 0.332426 0.687402
257 1 0.265842 0.141522 0.0380354
258 1 0.0170441 0.383658 0.599991
259 1 0.646327 0.902078 0.834471
260 1 0.641907 0.0110878 0.697586
261 1 0.723435 0.331129 0.770749
262 1 0.0869566 0.93936 0.949195
263 1 0.782418 0.382599 0.956093
264 1 0.128564 0.28009 0.0615215
265 1 0.886322 0.917579 0.247155
266 1 0.700656 0.0668007 0.322667
267 1 0.971874 0.520358 0.696359
268 1 0.184578 0.859801 0.436878
269 1 0.0013177 0.210357 0.623927
270 1 0.862094 0.667571 0.746231
271 1 0.560079 0.653402 0.903706
272 1 0.646027 0.0843457 0.666729
273 1 0.659937 0.6293 0.804347
274 1 0.723711 0.941974 0.707111
275 1 0.216774 0.0295271 0.972435
276 1 0.103561 0.49752 0.96671
277 1 0.408037 0.239261 0.0298755
278 1 0.184051 0.69862 0.461876
279 1 0.686043 0.838008 0.992387
280 1 0.639744 0.00863249 0.477079
281 1 0.923892 0.698957 0.882104
282 1 0.712464 0.510215 0.00289311
283 1 0.964736 0.818719 0.482783
284 1 0.631285 0.590453 0.447736
285 1 0.960514 0.630903 0.642521
286 1 0.571777 0.347601 0.126508
287 1 0.589903 0.797443 0.992134
288 1 0.024747 0.185647 0.549471
289 1 0.255718 0.678068 0.521057
290 1 0.938203 0.396435 0.790906
291 1 0.183341 0.238658 0.890701
292 1 0.437899 0.817975 0.0630598
293 1 0.130917 0.0391556 0.894401
294 1 0.0524968 0.0748703 0.967627
295 1 0.0942064 0.66661 0.346592
296 1 0.881059 0.255145 0.614518
297 1 0.520828 0.567486 0.733933
298 1 0.909889 0.979936 0.00328145
299 1 0.349056 0.995923 0.331953
300 1 0.655311 0.941797 0.202682
301 1 0.127598 0.582576 0.355081
302 1 0.0848146 0.579422 0.651431
303 1 0.238388 0.997713 0.487004
304 1 0.251059 0.862961 0.638224
305 1 0.109618 0.369875 0.6929
306 1 0.375548 0.964088 0.897578
307 1 0.511192 0.357918 0.474967
308 1 0.556234 0.898695 0.180288
309 1 0.168637 0.968806 0.149632
310 1 0.703737 0.572448 0.449408
311 1 0.350492 0.673828 0.629611
312 1 0.4707 0.80143 0.742986
313 1 0.664107 0.775718 0.243936
314 1 0.0692292 0.167194 0.175223
315 1 0.82542 0.559143 0.202855
316 1 0.507017 0.658474 0.684005
317 1 0.516877 0.661526 0.847412
318 1 0.225403 0.348076 0.917163
319 1 0.18528 0.805516 0.329865
320 1 0.990673 0.721132 0.269975
321 1 0.565597 0.168201 0.980967
322 1 0.877984 0.520927 0.308809
323 1 0.310096 0.0180603 0.69392
324 1 0.669514 0.894062 0.744576
325 1 0.949249 0.803052 0.952285
326 1 0.363343 0.335813 0.753308
327 1 0.634991 0.850316 0.168166
328 1 0.0611948 0.315636 0.685879
329 1 0.965326 0.188373 0.0827762
330 1 0.263172 0.269023 0.199631
331 1 0.285983 0.513592 0.379984
332 1 0.325604 0.603366 0.0129302
333 1 0.718831 0.318522 0.428207
334 1 0.83381 0.575636 0.501024
335 1 0.513067 0.954726 0.880282
336 1 0.387953 0.824909 0.329905
337 1 0.675615 0.118657 0.372317
338 1 0.332172 0.49412 0.618901
339 1 0.937649 0.122316 0.117126
340 1 0.620478 0.987806 0.244605
341 1 0.719848 0.558173 0.520581
342 1 0.756183 0.156334 0.974123
343 1 0.665846 0.137315 0.255474
344 1 0.743017 0.405933 0.398095
345 1 0.872845 0.0203964 0.0522766
346 1 0.0303459 0.887827 0.789328
347 1 0.0946123 0.701305 0.704249
348 1 0.753542 0.546785 0.402353
349 1 0.178915 0.573029 0.982833
350 1 0.531794 0.87481 0.0908594
351 1 0.077169 0.862915 0.741262
352 1 0.278464 0.745281 0.559118
353 1 0.926712 0.90818 0.740163
354 1 0.634004 0.945348 0.975031
355 1 0.338738 0.694583 0.536872
356 1 0.511845 0.772743 0.0431063
357 1 0.378474 0.585189 0.387507
358 1 0.325001 0.273577 0.79509
359 1 0.480055 0.956394 0.406944
360 1 0.868542 0.256504 0.841903
361 1 0.0353925 0.0616534 0.839879
362 1 0.215119 0.914275 0.872403
363 1 0.414786 0.0466921 0.48703
364 1 0.114227 0.424495 0.658271
365 1 0.571528 0.362633 0.656425
366 1 0.354193 0.260088 0.864157
367 1 0.163156 0.86543 0.0537527
368 1 0.1215 0.134802 0.261349
369 1 0.521272 0.382884 0.0920579
370 1 0.782247 0.198782 0.797715
371 1 0.842511 0.139844 0.433141
372 1 0.293283 0.714161 0.440264
373 1 0.0771038 0.774641 0.694065
374 1 0.346874 0.746173 0.0486747
375 1 0.0285381 0.817399 0.59352
376 1 0.459985 0.521399 0.908798
377 1 0.604996 0.463614 0.879458
378 1 0.14006 0.764279 0.109494
379 1 0.124978 0.851792 0.479093
380 1 0.877878 0.127613 0.0749544
381 1 0.672983 0.734004 0.96951
382 1 0.588357 0.2248 0.123439
383 1 0.944062 0.19965 0.487787
384 1 0.451556 0.630528 0.975495
385 1 0.630957 0.665234 0.592679
386 1 0.0614601 0.84134 0.360654
387 1 0.462874 0.597727 0.238938
388 1 0.79037 0.634595 0.901956
389 1 0.567215 0.729558 0.668603
390 1 0.244237 0.766162 0.939182
391 1 0.531379 0.908471 0.950001
392 1 0.318691 0.198269 0.810351
393 1 0.392555 0.654906 0.0184235
394 1 0.605359 0.7686 0.6179
395 1 0.697573 0.453862 0.80937
396 1 0.814934 0.262024 0.645549
397 1 0.696654 0.0806218 0.500376
398 1 0.23199 0.558475 0.0847217
399 1 0.575084 0.588051 0.320035
400 1 0.217179 0.672752 0.62341
401 1 0.162398 0.237736 0.138715
402 1 0.336991 0.0875597 0.684286
403 1 0.736482 0.917986 0.526017
404 1 0.739727 0.957403 0.335473
405 1 0.658831 0.287147 0.900306
406 1 0.0789993 0.995527 0.988861
407 1 0.076371 0.14848 0.686856
408 1 0.248055 0.576261 0.337294
409 1 0.722859 0.327865 0.663126
410 1 0.623384 0.574323 0.373257
411 1 0.010085 0.820021 0.418867
412 1 0.31025 0.672229 0.223885
413 1 0.196805 0.348892 0.282128
414 1 0.6019 0.694742 0.73935
415 1 0.823669 0.682915 0.490289
416 1 0.526591 0.23318 0.918309
417 1 0.403188 0.324287 0.102805
418 1 0.606922 0.3708 0.774235
419 1 0.058726 0.131696 0.815476
420 1 0.358675 0.873267 0.638581
421 1 0.29348 0.908705 0.60173
422 1 0.745038 0.452684 0.912307
423 1 0.107517 0.306805 0.130327
424 1 0.199589 0.863168 0.921491
425 1 0.838498 0.542383 0.410149
426 1 0.416412 0.121015 0.75946
427 1 0.669045 0.371249 0.428741
428 1 0.724756 0.540028 0.222581
429 1 0.223352 0.498221 0.929528
430 1 0.0416185 0.180817 0.357496
431 1 0.7678 0.212405 0.145486
432 1 0.648591 0.0548386 0.851273
433 1 0.122291 0.417445 0.947275
434 1 0.990515 0.88342 0.582523
435 1 0.252648 0.804919 0.791443
436 1 0.705308 0.622569 0.970398
437 1 0.845668 0.89515 0.718771
438 1 0.761892 0.265377 0.710276
439 1 0.530637 0.310457 0.668176
440 1 0.141156 0.790002 0.818186
441 1 0.763505 0.689785 0.95988
442 1 0.0475263 0.0717544 0.314541
443 1 0.854332 0.764026 0.247936
444 1 0.469842 0.271688 0.0064969
445 1 0.0990731 0.848154 0.172392
446 1 0.283271 0.822411 0.579294
447 1 0.932667 0.0430673 0.968041
448 1 0.983536 0.100735 0.160784
449 1 0.519997 0.67631 0.013221
450 1 0.407193 0.267892 0.159881
451 1 0.503273 0.863362 0.471188
452 1 0.0546431 0.0404652 0.0813726
453 1 0.82594 0.42765 0.30159
454 1 0.845891 0.323944 0.836272
455 1 0.374259 0.17158 0.848228
456 1 0.672971 0.0661771 0.436969
457 1 0.432359 0.165321 0.205784
458 1 0.626805 0.923896 0.0980961
459 1 0.618074 0.43254 0.13191
460 1 0.895613 0.328278 0.412372
461 1 0.737592 0.382424 0.464908
462 1 0.756385 0.301058 0.178315
463 1 0.755692 0.316238 0.258225
464 1 0.0809287 0.481504 0.242418
465 1 0.139209 0.878172 0.71626
466 1 0.566872 0.971609 0.934167
467 1 0.793767 0.914186 0.888124
468 1 0.419636 0.977152 0.369326
469 1 0.686172 0.61702 0.574806
470 1 0.335497 0.276179 0.958046
471 1 0.802601 0.778127 0.213837
472 1 0.728043 0.0343006 0.380224
473 1 0.220287 0.613323 0.193812
474 1 0.882051 0.151328 0.953618
475 1 0.742041 0.761748 0.704311
476 1 0.667781 0.0748055 0.779766
477 1 0.356139 0.558591 0.247162
478 1 0.630935 0.632059 0.866102
479 1 0.925951 0.789544 0.741084
480 1 0.259681 0.947372 0.399544
481 1 0.609088 0.180366 0.762699
482 1 0.492654 0.33213 0.960838
483 1 0.840662 0.168607 0.780358
484 1 0.614019 0.987258 0.544959
485 1 0.0635488 0.428013 0.468084
486 1 0.480503 0.228463 0.163003
487 1 0.202642 0.956587 0.223636
488 1 0.800483 0.932841 0.638167
489 1 0.153125 0.297943 0.34286
490 1 0.0263086 0.66301 0.154258
491 1 0.211657 0.42191 0.404988
492 1 0.24647 0.279058 0.88147
493 1 0.983119 0.48788 0.294081
494 1 0.711533 0.700231 0.543323
495 1 0.780463 0.105561 0.767453
496 1 0.336775 0.359973 0.820795
497 1 0.506662 0.239998 0.826281
498 1 0.732369 0.612138 0.633089
499 1 0.729007 0.24604 0.20117
500 1 0.352726 0.658823 0.463346
501 1 0.934526 0.674757 0.356829
502 1 0.806336 0.0227177 0.462201
503 1 0.945592 0.857507 0.909172
504 1 0.418386 0.515965 0.642021
505 1 0.440818 0.382043 0.096889
506 1 0.330927 0.449355 0.680751
507 1 0.732001 0.842046 0.52771
508 1 0.998897 0.186116 0.450182
509 1 0.810036 0.509907 0.252806
510 1 0.646363 0.174273 0.678326
511 1 0.840923 0.584991 0.775226
512 1 0.440067 0.632069 0.608919
513 1 0.35342 0.766255 0.292996
514 1 0.687693 0.58934 0.28225
515 1 0.371859 0.606033 0.0991402
516 1 0.528695 0.264088 0.091577
517 1 0.911527 0.281622 0.944463
518 1 0.0339176 0.13132 0.752342
519 1 0.923069 0.920803 0.85856
520 1 0.0592857 0.82824 0.853289
521 1 0.373718 0.120129 0.296051
522 1 0.0513177 0.00929185 0.411279
523 1 0.652834 0.70029 0.494299
524 1 0.371328 0.561002 0.984864
525 1 0.646976 0.633358 0.936143
526 1 0.150677 0.549464 0.505438
527 1 0.0718746 0.751197 0.862044
528 1 0.992674 0.549902 0.7907
529 1 0.651323 0.303113 0.0334333
530 1 0.305552 0.603934 0.734739
531 1 0.909838 0.951212 0.353481
532 1 0.364995 0.0692916 0.0267805
533 1 0.952998 0.399068 0.592745
534 1 0.254663 0.495888 0.0587282
535 1 0.205025 0.462155 0.580169
536 1 0.507192 0.0973747 0.613893
537 1 0.376177 0.60551 0.72961
538 1 0.564316 0.161688 0.670912
539 1 0.646133 0.551979 0.546907
540 1 0.628868 0.332886 0.611254
541 1 0.733593 0.517364 0.151736
542 1 0.43224 0.113424 0.63212
543 1 0.770937 0.365006 0.142889
544 1 0.56096 0.656447 0.570858
545 1 0.566967 0.541277 0.964811
546 1 0.534128 0.249365 0.289347
547 1 0.995273 0.192094 0.960364
548 1 0.0359932 0.387045 0.517453
549 1 0.678613 0.197626 0.562403
550 1 0.104226 0.879992 0.538896
551 1 0.0866585 0.0704294 0.160119
552 1 0.0641929 0.538639 0.599808
553 1 0.84341 0.0927472 0.972355
554 1 0.216659 0.40249 0.868885
555 1 0.00459324 0.720181 0.0249547
556 1 0.391101 0.133647 0.37422
557 1 0.102362 0.621018 0.430168
558 1 0.471651 0.78951 0.982924
559 1 0.684932 0.687794 0.771197
560 1 0.768186 0.29616 0.0951839
561 1 0.138241 0.106167 0.194815
562 1 0.80916 0.876839 0.441337
563 1 0.991513 0.877313 0.860413
564 1 0.0977207 0.35541 0.764944
565 1 0.77648 0.31652 0.490952
566 1 0.754287 0.13944 0.562512
567 1 0.602559 0.123866 0.813875
568 1 0.766845 0.989854 0.790625
569 1 0.430424 0.649898 0.869778
570 1 0.18354 0.21913 0.680703
571 1 0.701632 0.988728 0.764723
572 1 0.235939 0.677004 0.141794
573 1 0.919109 0.660667 0.261366
574 1 0.299451 0.52825 0.553572
575 1 0.859344 0.495951 0.61382
576 1 0.337236 0.579954 0.461288
577 1 0.528928 0.467865 0.804257
578 1 0.494925 0.0916464 0.914948
579 1 0.935885 0.357586 0.0492342
580 1 0.117212 0.812358 0.017419
581 1 0.981339 0.519426 0.214833
582 1 0.110655 0.487504 0.136151
583 1 0.135331 0.0654036 0.68386
584 1 0.336039 0.374633 0.378047
585 1 0.372704 0.826274 0.109067
586 1 0.806019 0.903101 0.101009
587 1 0.13954 0.970597 0.0413694
588 1 0.252781 0.700787 0.321505
589 1 0.580636 0.916469 0.515107
590 1 0.579685 0.627498 0.411973
591 1 0.392277 0.381153 0.040289
592 1 0.591595 0.510654 0.586258
593 1 0.0769055 0.12077 0.1021
594 1 0.625481 0.192439 0.490868
595 1 0.462738 0.439237 0.539436
596 1 0.180278 0.45027 0.649402
597 1 0.783763 0.700564 0.0556787
598 1 0.834334 0.140158 0.626453
599 1 0.907588 0.534524 0.37784
600 1 0.706408 0.737351 0.185858
601 1 0.477528 0.936311 0.648148
602 1 0.15868 0.171108 0.172606
603 1 0.106479 0.67056 0.833358
604 1 0.645658 0.634544 0.338292
605 1 0.000391358 0.253381 0.570005
606 1 0.955492 0.665827 0.0205601
607 1 0.484536 0.303838 0.88352
608 1 0.670211 0.291691 0.643131
609 1 0.20369 0.572013 0.74372
610 1 0.504566 0.182584 0.428864
611 1 0.899185 0.00746892 0.492354
612 1 0.073459 0.0938798 0.890591
613 1 0.17694 0.679722 0.187672
614 1 0.0861671 0.971935 0.855864
615 1 0.413442 0.199195 0.148043
616 1 0.485634 0.223145 0.481827
617 1 0.976901 0.093923 0.298328
618 1 0.579778 0.335363 0.198933
619 1 0.594504 0.420793 0.818954
620 1 0.685448 0.842153 0.593425
621 1 0.904723 0.539445 0.510473
622 1 0.570775 0.524817 0.145313
623 1 0.256432 0.184632 0.116441
624 1 0.615398 0.95469 0.775128
625 1 0.966452 0.391812 0.510274
626 1 0.364503 0.475488 0.385407
627 1 0.0739 0.439231 0.186221
628 1 0.983637 0.310692 0.957727
629 1 0.75717 0.409136 0.307535
630 1 0.0400133 0.806467 0.785609
631 1 0.258081 0.805515 0.296987
632 1 0.937139 0.561818 0.305058
633 1 0.387248 0.77784 0.75112
634 1 0.333659 0.213941 0.475556
635 1 0.744143 0.0656631 0.443162
636 1 0.0447325 0.728915 0.403388
637 1 0.639699 0.27295 0.123246
638 1 0.772386 0.946563 0.16145
639 1 0.967932 0.592666 0.236364
640 1 0.330717 0.956251 0.0494734
641 1 0.655729 0.924423 0.672929
642 1 0.436974 0.525956 0.539501
643 1 0.534317 0.933143 0.442321
644 1 0.0257758 0.367853 0.444151
645 1 0.20663 0.66391 0.843926
646 1 0.834845 0.49133 0.195081
647 1 0.542478 0.451297 0.0508146
648 1 0.549698 0.704959 0.960037
649 1 0.419679 0.663233 0.508018
650 1 0.785993 0.878794 0.692886
651 1 0.430687 0.123761 0.138018
652 1 0.48126 0.62639 0.12226
653 1 0.119776 0.406626 0.0191554
654 1 0.584125 0.435712 0.595953
655 1 0.0108905 0.601836 0.591433
656 1 0.166448 0.646956 0.783327
657 1 0.925139 0.793919 0.545915
658 1 0.939837 0.773963 0.380643
659 1 0.571995 0.721419 0.225433
660 1 0.243134 0.299884 0.803576
661 1 0.672408 0.755144 0.729069
662 1 0.256596 0.385736 0.77977
663 1 0.303672 0.600183 0.614362
664 1 0.718765 0.659018 0.256404
665 1 0.917576 0.793412 0.856793
666 1 0.273943 0.543336 0.70126
667 1 0.0518805 0.450606 0.818958
668 1 0.111734 0.490685 0.622218
669 1 0.575127 0.105807 0.23481
670 1 0.50263 0.855053 0.983912
671 1 0.193477 0.353211 0.788623
672 1 0.875852 0.789663 0.344112
673 1 0.943447 0.434348 0.0478742
674 1 0.802196 0.137353 0.876673
675 1 0.737578 0.139929 0.810419
676 1 0.106911 0.065453 0.350171
677 1 0.3127 0.386621 0.96848
678 1 0.224119 0.594938 0.606088
679 1 0.919623 0.563855 0.786975
680 1 0.780777 0.418658 0.0232643
681 1 0.591423 0.233673 0.225917
682 1 0.864348 0.420802 0.230073
683 1 0.184516 0.365948 0.429128
684 1 0.263887 0.63242 0.0496212
685 1 0.253931 0.502877 0.638555
686 1 0.227249 0.526144 0.572339
687 1 0.00614674 0.680961 0.0793534
688 1 0.847246 0.152289 0.248165
689 1 0.111289 0.970041 0.404434
690 1 0.914796 0.749804 0.293407
691 1 0.535432 0.767472 0.274209
692 1 0.854576 0.634605 0.96254
693 1 0.823586 0.759939 0.0381783
694 1 0.148861 0.920317 0.610638
695 1 0.821764 0.974874 0.852178
696 1 0.390516 0.673591 0.693884
697 1 0.108574 0.17117 0.506954
698 1 0.289238 0.602925 0.519469
699 1 0.902257 0.400015 0.383588
700 1 0.84299 0.18559 0.327519
701 1 0.160552 0.89521 0.970315
702 1 0.314368 0.984444 0.429989
703 1 0.442065 0.549021 0.737752
704 1 0.460201 0.29503 0.650537
705 1 0.42582 0.776297 0.930102
706 1 0.0292673 0.581997 0.00919924
707 1 0.432518 0.20985 0.707267
708 1 0.336389 0.155835 0.911406
709 1 0.525816 0.43352 0.226144
710 1 0.409182 0.538093 0.0848193
711 1 0.63193 0.83035 0.794376
712 1 0.914638 0.783909 0.053373
713 1 0.808945 0.0784054 0.282246
714 1 0.546352 0.569221 0.664767
715 1 0.411968 0.0175313 0.421363
716 1 0.0386067 0.232885 0.0891712
717 1 0.733047 0.680004 0.365485
718 1 0.965914 0.487594 0.998691
719 1 0.260188 0.571073 0.456041
720 1 0.768994 0.650516 0.305104
721 1 0.630085 0.248127 0.581763
722 1 0.373088 0.705773 0.217675
723 1 0.634916 0.295421 0.208722
724 1 0.602407 0.715717 0.0509719
725 1 0.882303 0.70956 0.414904
726 1 0.733596 0.992814 0.615869
727 1 0.805828 0.568729 0.930397
728 1 0.198981 0.814538 0.130953
729 1 0.68774 0.455374 0.133845
730 1 0.433782 0.240067 0.230018
731 1 0.258375 0.0884581 0.928008
732 1 0.494286 0.281578 0.229617
733 1 0.0328538 0.48532 0.0018021
734 1 0.563841 0.086449 0.661607
735 1 0.50513 0.789241 0.443703
736 1 0.303094 0.500654 0.843105
737 1 0.747501 0.0191977 0.50585
738 1 0.927394 0.24424 0.557288
739 1 0.641569 0.912583 0.323496
740 1 0.551965 0.880743 0.304466
741 1 0.405825 0.733518 0.855389
742 1 0.933874 0.203332 0.263678
743 1 0.736109 0.379533 0.871256
744 1 0.303003 0.907004 0.526122
745 1 0.667674 0.0775677 0.0974493
746 1 0.710178 0.811398 0.81064
747 1 0.669441 0.386722 0.831023
748 1 0.264126 0.228816 0.708932
749 1 0.559648 0.0895319 0.758238
750 1 0.755878 0.94413 0.94068
751 1 0.700679 0.789091 0.93538
752 1 0.0257526 0.188022 0.89224
753 1 0.279691 0.682075 0.59464
754 1 0.0212882 0.855535 0.0870962
755 1 0.0572462 0.733025 0.122476
756 1 0.301245 0.221426 0.921363
757 1 0.540758 0.85511 0.601144
758 1 0.526378 0.825518 0.69273
759 1 0.694521 0.200932 0.239145
760 1 0.538741 0.843641 0.411793
761 1 0.257724 0.811832 0.872576
762 1 0.186873 0.959945 0.964282
763 1 0.746597 0.923083 0.0626781
764 1 0.259029 0.546207 0.782278
765 1 0.849797 0.0225411 0.807653
766 1 0.117093 0.428832 0.798006
767 1 0.428414 0.710495 0.776546
768 1 0.0103289 0.873986 0.492465
769 1 0.61018 0.388374 0.270299
770 1 0.863075 0.350441 0.477226
771 1 0.438292 0.717031 0.260242
772 1 0.0433029 0.395396 0.661346
773 1 0.472583 0.00752289 0.718903
774 1 0.614698 0.165688 0.874906
775 1 0.0472434 0.741499 0.232476
776 1 0.868319 0.961163 0.436889
777 1 0.131498 0.0896478 0.54654
778 1 0.944107 0.531564 0.840285
779 1 0.900005 0.667758 0.812055
780 1 0.547968 0.344714 0.728701
781 1 0.14546 0.0551435 0.292367
782 1 0.566048 0.271666 0.399549
783 1 0.655886 0.23788 0.026452
784 1 0.768245 0.730432 0.593107
785 1 0.521947 0.375705 0.171655
786 1 0.554165 0.21478 0.619633
787 1 0.328403 0.415287 0.296778
788 1 0.0641825 0.320678 0.999606
789 1 0.894954 0.508844 0.70102
790 1 0.662589 0.531051 0.693873
791 1 0.306753 0.577555 0.387059
792 1 0.391335 0.836306 0.264837
793 1 0.20989 0.081045 0.045565
794 1 0.602475 0.859842 0.343421
795 1 0.209711 0.302861 0.161147
796 1 0.652821 0.180317 0.349485
797 1 0.925513 0.013619 0.0968902
798 1 0.954056 0.618873 0.931462
799 1 0.292989 0.0568104 0.586392
800 1 0.889901 0.957029 0.802241
801 1 0.607459 0.331757 0.410142
802 1 0.332026 0.812679 0.66995
803 1 0.739328 0.865716 0.423616
804 1 0.579464 0.458262 0.524815
805 1 0.393032 0.54592 0.897234
806 1 0.0353489 0.85067 0.290765
807 1 0.0509348 0.483293 0.88094
808 1 0.0245348 0.340737 0.365517
809 1 0.574097 0.656388 0.0784098
810 1 0.124398 0.757579 0.934408
811 1 0.910633 0.852618 0.324636
812 1 0.240737 0.886492 0.480972
813 1 0.750126 0.539744 0.579804
814 1 0.98515 0.068138 0.671988
815 1 0.48796 0.978424 0.287398
816 1 0.222546 0.0928732 0.819613
817 1 0.281294 0.923123 0.978941
818 1 0.173742 0.806915 0.952554
819 1 0.899369 0.905526 0.648778
820 1 0.0111971 0.39171 0.82759
821 1 0.252652 0.153401 0.798363
822 1 0.542992 0.101147 0.856453
823 1 0.542572 0.0781605 0.136374
824 1 0.900237 0.185102 0.585417
825 1 0.88933 0.849103 0.0968673
826 1 0.90963 0.0594848 0.37452
827 1 0.604738 0.758457 0.813561
828 1 0.902265 0.680056 0.148031
829 1 0.954425 0.90322 0.29637
830 1 0.774786 0.839942 0.139255
831 1 0.993832 0.758217 0.6284
832 1 0.532968 0.789089 0.803069
833 1 0.984089 0.976429 0.624505
834 1 0.711736 0.614731 0.74525
835 1 0.554308 0.216881 0.0284068
836 1 0.0729603 0.40473 0.341017
837 1 0.883455 0.62802 0.316469
838 1 0.273233 0.347918 0.156803
839 1 0.977753 0.23283 0.72974
840 1 0.146921 0.569875 0.0486156
841 1 0.684541 0.527197 0.81912
842 1 0.194721 0.129131 0.440093
843 1 0.519196 0.949279 0.229931
844 1 0.481233 0.938302 0.821994
845 1 0.759022 0.182268 0.255468
846 1 0.845795 0.0315283 0.229365
847 1 0.349933 0.00107405 0.804001
848 1 0.734109 0.19104 0.0410479
849 1 0.0988456 0.208577 0.0405679
850 1 0.916561 0.259629 0.436265
851 1 0.984973 0.368838 0.277658
852 1 0.489487 0.626025 0.910155
853 1 0.724051 0.238287 0.349774
854 1 0.474477 0.00754715 0.542613
855 1 0.0720415 0.460452 0.74108
856 1 0.265284 0.811364 0.508345
857 1 0.111393 0.703374 0.217744
858 1 0.253765 0.136535 0.873848
859 1 0.681906 0.693607 0.313918
860 1 0.860489 0.477889 0.45011
861 1 0.68779 0.79818 0.331728
862 1 0.523594 0.568272 0.468958
863 1 0.0674328 0.839617 0.67466
864 1 0.575917 0.0534146 0.955127
865 1 0.127029 0.198353 0.231599
866 1 0.0135638 0.136771 0.656015
867 1 0.250906 0.246905 0.524574
868 1 0.541655 0.735971 0.752531
869 1 0.202734 0.511585 0.460323
870 1 0.0434618 0.337707 0.278109
871 1 0.36318 0.0914949 0.153399
872 1 0.843099 0.0601809 0.103876
873 1 0.232208 0.0140051 0.0927642
874 1 0.100993 0.263176 0.986583
875 1 0.632932 0.478702 0.486507
876 1 0.616994 0.509787 0.423377
877 1 0.103454 0.662374 0.64296
878 1 0.761188 0.872953 0.0114442
879 1 0.601106 0.129239 0.323481
880 1 0.909431 0.0797382 0.025842
881 1 0.210437 0.58562 0.404724
882 1 0.686186 0.33297 0.168778
883 1 0.853627 0.817996 0.0119793
884 1 0.841255 0.447166 0.673986
885 1 0.545511 0.806084 0.15358
886 1 0.843635 0.200428 0.992574
887 1 0.173936 0.320872 0.725299
888 1 0.552777 0.982272 0.32778
889 1 0.812091 0.452713 0.50594
890 1 0.043181 0.122062 0.485676
891 1 0.130371 0.901166 0.785033
892 1 0.126577 0.108349 0.474762
893 1 0.806887 0.0181078 0.624159
894 1 0.855762 0.409926 0.748277
895 1 0.984093 0.732955 0.925113
896 1 0.388199 0.830872 0.574602
897 1 0.748874 0.48411 0.852197
898 1 0.115759 0.587384 0.88753
899 1 0.887816 0.421783 0.626526
900 1 0.687759 0.857077 0.475898
901 1 0.934806 0.318943 0.805288
902 1 0.487166 0.88957 0.25448
903 1 0.51611 0.951823 0.593476
904 1 0.925021 0.0285282 0.807912
905 1 0.0151178 0.923366 0.22544